ITEM: TIMESTEP
500
ITEM: NUMBER OF ATOMS
1000
ITEM: BOX BOUNDS pp pp pp
-2.0000000000000000e+01 2.0000000000000000e+01
-2.0000000000000000e+01 2.0000000000000000e+01
-2.0000000000000000e+01 2.0000000000000000e+01
ITEM: ATOMS id type xs ys zs
468 1 0.737885 0.0841015 0.113239
97 1 0.951848 0.335842 0.0864362
178 1 0.935043 0.364478 0.0734151
476 1 0.948332 0.583028 0.094371
278 1 0.0489943 0.741101 0.0890858
195 1 0.854278 0.736741 0.0897493
374 1 0.497323 0.924613 0.0761459
433 1 0.914849 0.920964 0.0547897
449 1 0.0390518 0.976016 0.0604759
323 1 0.863064 0.056638 0.0737302
71 1 0.487278 0.0858525 0.0720668
164 1 0.476332 0.117368 0.0632553
87 1 0.310402 0.143373 0.120205
143 1 0.782475 0.170955 0.113293
140 1 0.916229 0.180051 0.129558
16 1 0.203865 0.218851 0.115927
200 1 0.188913 0.24687 0.0917487
461 1 0.483735 0.325571 0.0530929
23 1 0.736537 0.315309 0.0782204
152 1 0.894962 0.312809 0.113909
482 1 0.693561 0.353099 0.0949777
191 1 0.711495 0.353728 0.103468
310 1 0.863473 0.332241 0.0753658
336 1 0.968203 0.340992 0.0949055
202 1 0.201365 0.339602 0.091182
303 1 0.275214 0.354592 0.11543
210 1 0.327959 0.339996 0.0762252
279 1 0.491797 0.385701 0.0733019
177 1 0.504631 0.402155 0.0800367
358 1 0.699519 0.384051 0.0721124
216 1 0.606482 0.399439 0.145966
369 1 0.669464 0.415364 0.10757
493 1 0.224236 0.453064 0.075035
231 1 0.101484 0.513533 0.104532
47 1 0.00605998 0.512667 0.077249
53 1 0.067393 0.541289 0.100526
436 1 0.385845 0.533417 0.0819394
382 1 0.709305 0.546982 0.126489
443 1 0.285897 0.593462 0.108594
296 1 0.374483 0.537094 0.107187
207 1 0.48281 0.576464 0.120312
150 1 0.192793 0.617381 0.102776
188 1 0.174152 0.636083 0.102711
212 1 0.985178 0.681424 0.0761753
69 1 0.152923 0.71053 0.112404
194 1 0.86262 0.707263 0.0953433
490 1 0.346362 0.692269 0.076635
448 1 0.0292652 0.722121 0.101556
175 1 0.898463 0.75936 0.0948426
146 1 0.539553 0.792102 0.100903
413 1 0.711541 0.765976 0.0889863
25 1 0.391152 0.791933 0.111415
361 1 0.626248 0.830822 0.0902779
154 1 0.132669 0.845311 0.104962
107 1 0.0593337 0.842437 0.0697079
377 1 0.111008 0.888627 0.105594
384 1 0.881874 0.8752 0.102393
172 1 0.0548822 0.867203 0.0746771
315 1 0.422608 0.849281 0.0984788
49 1 0.919801 0.903714 0.0903709
291 1 0.552427 0.971914 0.0788269
261 1 0.372564 0.964073 0.113858
334 1 0.672523 0.0187793 0.0885832
133 1 0.342278 0.0616098 0.0892536
132 1 0.851102 0.0810969 0.107398
241 1 0.659551 0.104457 0.0962634
208 1 0.0885971 0.110161 0.100165
80 1 0.0126173 0.160008 0.0997111
309 1 0.230999 0.247298 0.11802
305 1 0.82154 0.265468 0.09686
480 1 0.106526 0.288958 0.11824
240 1 0.384751 0.279277 0.107507
225 1 0.702263 0.273167 0.103423
390 1 0.770601 0.278044 0.0992396
126 1 0.992513 0.325416 0.106155
55 1 0.76878 0.30456 0.105277
18 1 0.928377 0.362831 0.102184
52 1 0.140971 0.39286 0.133988
372 1 0.178186 0.414596 0.0765658
62 1 0.388796 0.425173 0.126991
462 1 0.654197 0.402915 0.119357
221 1 0.41465 0.433157 0.098011
460 1 0.198966 0.458494 0.112077
42 1 0.507722 0.452108 0.110338
238 1 0.825917 0.446726 0.102187
427 1 0.00840374 0.463733 0.103789
380 1 0.410145 0.490204 0.11651
14 1 0.502402 0.485479 0.0970892
392 1 0.70287 0.500126 0.123248
112 1 0.795394 0.486128 0.0956748
362 1 0.0251791 0.534056 0.112329
26 1 0.0692147 0.5125 0.0700877
250 1 0.823299 0.54781 0.133868
161 1 0.111962 0.530396 0.120928
388 1 0.697883 0.588732 0.103259
450 1 0.847776 0.592166 0.0912624
43 1 0.380561 0.657804 0.109487
44 1 0.498172 0.620177 0.10648
280 1 0.284608 0.667472 0.12269
20 1 0.470782 0.682505 0.0812419
417 1 0.741879 0.726906 0.106008
124 1 0.83958 0.693993 0.118489
411 1 0.100656 0.742884 0.110949
395 1 0.33113 0.791727 0.109892
205 1 0.513166 0.791387 0.0870796
469 1 0.194276 0.835232 0.111263
429 1 0.105863 0.927511 0.159274
376 1 0.197027 0.891065 0.123086
65 1 0.829602 0.933054 0.110827
308 1 0.924817 0.964034 0.106423
277 1 0.48601 0.956935 0.0875576
437 1 0.495601 0.9719 0.121076
121 1 0.542961 0.957848 0.143921
117 1 0.738142 0.947735 0.133443
214 1 0.347774 0.987032 0.113715
203 1 0.412114 0.0181351 0.128321
463 1 0.032956 0.0856969 0.0995674
488 1 0.174396 0.0837936 0.156193
171 1 0.601265 0.0817543 0.13176
423 1 0.232973 0.129685 0.139061
338 1 0.288364 0.162901 0.12295
269 1 0.8417 0.155825 0.156944
366 1 0.315961 0.232166 0.130473
472 1 0.773896 0.221204 0.0969343
455 1 0.0957628 0.247152 0.0981279
307 1 0.271382 0.280551 0.119851
66 1 0.920976 0.281303 0.110701
284 1 0.199127 0.280214 0.0774891
318 1 0.0525117 0.327981 0.0928306
36 1 0.438113 0.311556 0.138574
442 1 0.560414 0.291812 0.136819
495 1 0.52362 0.325446 0.109892
24 1 0.834482 0.356033 0.121937
136 1 0.274516 0.374725 0.15337
11 1 0.494177 0.40688 0.114349
446 1 0.535867 0.400154 0.13265
176 1 0.574631 0.432613 0.0921028
440 1 0.717432 0.413371 0.110487
326 1 0.901447 0.427556 0.113993
344 1 0.810921 0.431541 0.121122
487 1 0.485232 0.473917 0.104011
347 1 0.249384 0.607394 0.134992
37 1 0.858519 0.592568 0.137217
39 1 0.64262 0.578722 0.122617
28 1 0.534492 0.636173 0.113682
227 1 0.446939 0.624117 0.109976
257 1 0.103584 0.625759 0.1041
3 1 0.383859 0.643912 0.0787847
163 1 0.270008 0.684866 0.147219
373 1 0.887255 0.734945 0.12273
155 1 0.259408 0.783033 0.115291
228 1 0.529272 0.768783 0.138264
180 1 0.410006 0.771998 0.126042
425 1 0.714632 0.801107 0.116691
15 1 0.918753 0.76219 0.130357
167 1 0.539315 0.843596 0.134006
486 1 0.853701 0.875304 0.154627
397 1 0.518339 0.953733 0.105453
352 1 0.678498 0.944347 0.135082
106 1 0.00181828 0.968732 0.115306
313 1 0.261452 0.98767 0.116805
332 1 0.9424 0.970807 0.126656
438 1 0.604279 0.0129525 0.119135
292 1 0.803549 0.982428 0.172039
64 1 0.122129 0.0307483 0.144568
110 1 0.638258 0.0314469 0.138801
432 1 0.866886 0.0251147 0.154393
211 1 0.925477 0.996528 0.142983
494 1 0.326624 0.0578708 0.171443
314 1 0.152402 0.0604994 0.16549
370 1 0.563355 0.093896 0.170544
434 1 0.661313 0.0897709 0.153212
379 1 0.722932 0.0815192 0.129222
7 1 0.189571 0.117351 0.165618
266 1 0.294547 0.125873 0.116204
389 1 0.584607 0.116686 0.131472
198 1 0.453396 0.15109 0.114511
101 1 0.731797 0.137219 0.14087
428 1 0.475862 0.190123 0.171228
484 1 0.742511 0.164013 0.145802
350 1 0.911762 0.162992 0.116646
276 1 0.644213 0.174813 0.140439
21 1 0.994844 0.208539 0.1563
114 1 0.0027349 0.204509 0.137724
54 1 0.53848 0.199769 0.158672
406 1 0.736917 0.245298 0.129783
301 1 0.122708 0.279679 0.136135
17 1 0.817131 0.314401 0.157675
96 1 0.290789 0.368432 0.137897
467 1 0.313695 0.353887 0.118648
109 1 0.705007 0.408567 0.121852
357 1 0.066411 0.382942 0.137336
412 1 0.102718 0.437341 0.173695
254 1 0.433096 0.45384 0.143175
220 1 0.0328688 0.459648 0.145757
242 1 0.467972 0.454967 0.122185
447 1 0.507593 0.4654 0.130119
441 1 0.0678523 0.457226 0.135813
219 1 0.147881 0.478473 0.121182
196 1 0.303287 0.471966 0.175639
340 1 0.44011 0.447353 0.159143
398 1 0.0167526 0.498926 0.138706
31 1 0.32354 0.516912 0.133721
272 1 0.834343 0.548532 0.13127
169 1 0.129515 0.551855 0.144277
4 1 0.841882 0.580889 0.160723
130 1 0.475091 0.594717 0.166769
131 1 0.724119 0.619915 0.130127
12 1 0.331877 0.652733 0.133777
491 1 0.420459 0.642534 0.129937
13 1 0.237215 0.705589 0.14123
179 1 0.809119 0.6676 0.153533
416 1 0.335115 0.726428 0.129132
431 1 0.179444 0.765638 0.131254
6 1 0.643032 0.762656 0.155033
333 1 0.247928 0.772861 0.156611
199 1 0.714944 0.846591 0.129969
89 1 0.227962 0.0623651 0.165424
481 1 0.202075 0.133657 0.160468
349 1 0.594111 0.181242 0.178488
268 1 0.601061 0.220691 0.141185
50 1 0.4763 0.247959 0.126634
81 1 0.232187 0.260587 0.166957
293 1 0.0450041 0.303459 0.159775
153 1 0.48488 0.317098 0.17988
430 1 0.731403 0.393644 0.173981
137 1 0.895297 0.418702 0.162919
290 1 0.913711 0.449416 0.157379
260 1 0.798879 0.485597 0.188172
78 1 0.108079 0.489007 0.157233
57 1 0.264761 0.490705 0.175691
68 1 0.115384 0.530527 0.162649
160 1 0.187784 0.522596 0.138463
8 1 0.889423 0.560329 0.144079
145 1 0.415955 0.708519 0.133536
103 1 0.416441 0.696462 0.183291
32 1 0.585186 0.754707 0.143021
299 1 0.650874 0.731955 0.139638
381 1 0.0454993 0.733118 0.176184
330 1 0.828928 0.757284 0.164472
239 1 0.243307 0.732157 0.173078
92 1 0.287174 0.775808 0.1409
226 1 0.403435 0.799569 0.172256
497 1 0.933922 0.767678 0.161146
329 1 0.0603341 0.819217 0.131589
249 1 0.383718 0.840154 0.142725
498 1 0.658854 0.933882 0.153067
375 1 0.025433 0.976379 0.178699
122 1 0.0783143 0.0347277 0.170325
82 1 0.834411 0.017933 0.183504
470 1 0.0504629 0.00889044 0.185544
192 1 0.0876702 0.107436 0.166076
356 1 0.153882 0.0794008 0.161496
422 1 0.795351 0.078392 0.164751
29 1 0.615752 0.121356 0.174267
38 1 0.697669 0.154721 0.158061
248 1 0.00544206 0.126837 0.166826
353 1 0.670593 0.152488 0.176736
95 1 0.584761 0.206144 0.155279
206 1 0.923539 0.167374 0.188729
104 1 0.0283341 0.246507 0.171037
201 1 0.350164 0.215807 0.165148
5 1 0.408135 0.186944 0.174057
408 1 0.18468 0.245143 0.158466
485 1 0.513757 0.220857 0.187233
302 1 0.243059 0.295276 0.182727
371 1 0.428046 0.28516 0.182602
224 1 0.411911 0.331604 0.196508
79 1 0.0443021 0.388661 0.189447
93 1 0.910536 0.373719 0.175244
499 1 0.0563765 0.383835 0.150418
328 1 0.511827 0.394651 0.17817
148 1 0.812442 0.411115 0.151018
19 1 0.842292 0.429593 0.170605
300 1 0.0569607 0.442569 0.18323
108 1 0.424572 0.487565 0.178935
306 1 0.90031 0.45412 0.163164
473 1 0.962999 0.518739 0.174345
312 1 0.971586 0.567435 0.188583
394 1 0.293398 0.598799 0.18665
86 1 0.624211 0.579778 0.17916
30 1 0.253129 0.616106 0.202102
230 1 0.630157 0.707511 0.171649
113 1 0.622525 0.742471 0.138773
319 1 0.428647 0.776948 0.153426
483 1 0.46235 0.769267 0.193862
401 1 0.963586 0.79042 0.197799
454 1 0.412025 0.822008 0.173889
286 1 0.273447 0.840707 0.163959
247 1 0.309651 0.853358 0.194049
474 1 0.343269 0.852347 0.139007
364 1 0.340383 0.84157 0.174898
75 1 0.0873363 0.900365 0.157184
327 1 0.585809 0.887557 0.162114
61 1 0.90917 0.897141 0.190945
287 1 0.633643 0.86777 0.175536
399 1 0.673294 0.00175636 0.181887
233 1 0.0443925 0.975539 0.146441
223 1 0.569226 0.040353 0.160966
265 1 0.364728 0.0104975 0.168178
193 1 0.502328 0.0179038 0.195987
120 1 0.307973 0.12412 0.167559
465 1 0.828513 0.0919274 0.186341
10 1 0.404751 0.135556 0.208623
478 1 0.450255 0.149806 0.19656
410 1 0.0769241 0.159603 0.188048
168 1 0.398097 0.170088 0.190754
464 1 0.631301 0.196024 0.173796
403 1 0.86308 0.179983 0.195589
294 1 0.279634 0.249158 0.209536
135 1 0.0700942 0.307522 0.170081
419 1 0.342306 0.282483 0.213184
262 1 0.0270116 0.280343 0.187195
174 1 0.436339 0.260915 0.189166
237 1 0.829931 0.322876 0.210111
339 1 0.986689 0.274911 0.204231
289 1 0.219845 0.320771 0.190661
158 1 0.513357 0.351074 0.180933
118 1 0.0314865 0.339232 0.177623
85 1 0.305448 0.314318 0.163093
222 1 0.604152 0.330819 0.214863
149 1 0.176751 0.360783 0.204076
98 1 0.264705 0.356345 0.204252
288 1 0.845922 0.385719 0.184585
151 1 0.856472 0.432291 0.176572
386 1 0.161301 0.471276 0.19474
189 1 0.931316 0.50123 0.162811
316 1 0.153032 0.496318 0.225068
166 1 0.645082 0.546829 0.196488
360 1 0.146019 0.562134 0.210227
157 1 0.354983 0.601773 0.179607
217 1 0.498746 0.602426 0.186222
444 1 0.339969 0.625511 0.174995
48 1 0.61558 0.655506 0.20588
258 1 0.511071 0.686549 0.208709
141 1 0.0240385 0.696107 0.211963
147 1 0.588372 0.726516 0.199399
342 1 0.63342 0.732755 0.187679
115 1 0.94727 0.751654 0.185956
391 1 0.266169 0.78714 0.178386
415 1 0.510798 0.809938 0.162747
311 1 0.638675 0.78314 0.181812
105 1 0.539407 0.788898 0.2002
404 1 0.189276 0.827962 0.187236
322 1 0.660428 0.859688 0.186397
331 1 0.673122 0.797837 0.177209
393 1 0.339566 0.884377 0.207735
94 1 0.422953 0.884566 0.178283
402 1 0.115888 0.913336 0.184855
421 1 0.318409 0.91481 0.175674
100 1 0.720568 0.917679 0.171911
320 1 0.788099 0.942983 0.22198
170 1 0.277329 0.0145245 0.236145
274 1 0.387273 0.0610561 0.237516
243 1 0.180814 0.0853083 0.172185
235 1 0.0753504 0.0842847 0.224626
88 1 0.152385 0.141383 0.199064
142 1 0.535252 0.170888 0.205224
218 1 0.620442 0.19317 0.198328
111 1 0.682849 0.168815 0.183495
282 1 0.561984 0.212917 0.204787
343 1 0.440464 0.253675 0.176739
451 1 0.0884192 0.229828 0.238641
500 1 0.417084 0.302415 0.215881
236 1 0.698444 0.24257 0.20819
271 1 0.468857 0.291572 0.181528
492 1 0.522145 0.297392 0.187484
182 1 0.72148 0.312061 0.198258
99 1 0.742616 0.372173 0.19423
232 1 0.553915 0.420232 0.21155
255 1 0.782815 0.404261 0.173166
59 1 0.694718 0.4121 0.175293
400 1 0.87796 0.449991 0.192012
354 1 0.238867 0.482042 0.214742
471 1 0.919038 0.48175 0.21464
74 1 0.235964 0.504342 0.215785
259 1 0.925664 0.551824 0.199117
439 1 0.447059 0.6222 0.199186
76 1 0.71707 0.615321 0.194565
77 1 0.764978 0.624568 0.229538
452 1 0.47341 0.67471 0.189333
496 1 0.385911 0.75985 0.186235
197 1 0.406483 0.812858 0.221222
297 1 0.496776 0.775657 0.20867
283 1 0.108172 0.791886 0.249868
409 1 0.424117 0.845528 0.206113
445 1 0.678947 0.8978 0.208302
405 1 0.544562 0.904028 0.214841
435 1 0.553136 0.0148041 0.207204
84 1 0.341151 0.0436455 0.185362
325 1 0.459422 0.0628227 0.204372
407 1 0.0310337 0.12732 0.212002
234 1 0.257227 0.113929 0.244112
251 1 0.661662 0.136991 0.21662
40 1 0.995618 0.158532 0.209479
285 1 0.692972 0.187791 0.219604
213 1 0.730592 0.226051 0.22177
70 1 0.369571 0.255816 0.22172
187 1 0.333223 0.260864 0.234658
295 1 0.906659 0.262129 0.230576
173 1 0.352361 0.270399 0.230302
181 1 0.723093 0.2919 0.257086
256 1 0.546559 0.32429 0.235322
253 1 0.188596 0.326215 0.234588
51 1 0.678222 0.354447 0.236698
457 1 0.417526 0.446412 0.223541
263 1 0.52105 0.399052 0.215998
56 1 0.444122 0.494333 0.181784
368 1 0.219724 0.570107 0.225703
116 1 0.351653 0.553594 0.194562
270 1 0.136046 0.548734 0.236614
102 1 0.756572 0.600892 0.232534
420 1 0.498808 0.620895 0.206165
128 1 0.421558 0.65334 0.221486
165 1 0.254558 0.65744 0.194883
119 1 0.497229 0.673133 0.216719
41 1 0.661831 0.702941 0.219716
466 1 0.434349 0.733082 0.24062
264 1 0.639666 0.698668 0.231909
321 1 0.833995 0.698976 0.216915
72 1 0.913727 0.713442 0.251617
281 1 0.278113 0.725033 0.211236
273 1 0.359306 0.697275 0.196441
129 1 0.543434 0.737322 0.238286
46 1 0.894685 0.724025 0.239127
458 1 0.08527 0.828825 0.22385
346 1 0.707247 0.810104 0.189792
479 1 0.0526904 0.847957 0.189329
35 1 0.267192 0.861839 0.240034
365 1 0.538951 0.879337 0.193246
34 1 0.38501 0.877973 0.215421
22 1 0.212474 0.93063 0.208498
304 1 0.200782 0.949392 0.192949
424 1 0.060831 0.962513 0.20154
418 1 0.428386 0.0601777 0.287718
298 1 0.841201 0.0326343 0.241928
209 1 0.24749 0.0876476 0.261353
27 1 0.419882 0.0654309 0.227957
184 1 0.815596 0.0664734 0.245967
127 1 0.0366747 0.136563 0.241682
367 1 0.582381 0.183704 0.26467
185 1 0.836861 0.162872 0.223063
144 1 0.695154 0.187698 0.247106
58 1 0.850257 0.219548 0.233425
215 1 0.642226 0.20149 0.21984
335 1 0.0163096 0.220939 0.259948
396 1 0.0726494 0.282348 0.238353
73 1 0.262534 0.272611 0.253942
183 1 0.942533 0.288212 0.270696
45 1 0.923447 0.374308 0.243148
337 1 0.630255 0.342719 0.248487
475 1 0.482935 0.410877 0.229506
351 1 0.123696 0.468265 0.266958
159 1 0.203378 0.446117 0.235526
341 1 0.763857 0.502975 0.266217
190 1 0.357372 0.50671 0.262493
246 1 0.90755 0.556229 0.234469
186 1 0.137477 0.554445 0.280169
383 1 0.782671 0.608853 0.241854
83 1 0.997152 0.624996 0.248805
359 1 0.308942 0.653628 0.230836
90 1 0.874166 0.638117 0.232651
453 1 0.0463659 0.676444 0.207098
204 1 0.146995 0.66646 0.239094
139 1 0.450478 0.678776 0.23104
275 1 0.547309 0.699329 0.190342
355 1 0.912342 0.765732 0.230765
414 1 0.274224 0.778551 0.226532
244 1 0.339713 0.753679 0.243429
138 1 0.0689663 0.897552 0.246487
345 1 0.523111 0.913203 0.251835
348 1 0.355454 0.991301 0.225152
9 1 0.343167 0.0364094 0.245273
324 1 0.964653 0.141994 0.276934
91 1 0.0173644 0.161102 0.250323
123 1 0.423351 0.168881 0.25526
2 1 0.912468 0.146514 0.253597
125 1 0.0607986 0.207293 0.284546
252 1 0.796443 0.217964 0.269563
67 1 0.309243 0.219437 0.245263
378 1 0.541662 0.273432 0.21702
477 1 0.366385 0.313619 0.258373
387 1 0.21512 0.303562 0.247433
60 1 0.654492 0.384369 0.241603
1 1 0.789898 0.376601 0.23263
245 1 0.172693 0.408044 0.24894
267 1 0.674539 0.510972 0.249643
459 1 0.293701 0.542657 0.230207
456 1 0.0188127 0.59007 0.242972
363 1 0.594405 0.595283 0.247717
33 1 0.775467 0.588913 0.268071
426 1 0.24607 0.63058 0.230802
317 1 0.387398 0.613791 0.247714
385 1 0.15502 0.626022 0.269604
134 1 0.904314 0.658678 0.26582
229 1 0.419257 0.742043 0.276959
489 1 0.800797 0.873496 0.253205
162 1 0.0286612 0.837923 0.2385
156 1 0.956356 0.909891 0.25258
63 1 0.166152 0.966706 0.227494
763 2 0.982927 0.0965019 0.738194
948 2 0.419124 0.159623 0.760679
538 2 0.695779 0.210183 0.726284
682 2 0.914188 0.227287 0.742324
649 2 0.104603 0.241087 0.750927
997 2 0.412704 0.270944 0.744821
656 2 0.888614 0.277197 0.750651
567 2 0.861547 0.328037 0.737275
516 2 0.251841 0.310545 0.759287
814 2 0.762461 0.422484 0.755275
904 2 0.832735 0.511817 0.743365
556 2 0.793563 0.577297 0.753208
592 2 0.34285 0.618467 0.756056
646 2 0.277712 0.680917 0.760746
631 2 0.752995 0.722271 0.744369
784 2 0.219949 0.786681 0.736071
820 2 0.345564 0.83598 0.765089
695 2 0.192276 0.984939 0.753977
906 2 0.79826 0.00207478 0.753302
889 2 0.140141 0.987797 0.758452
941 2 0.897678 0.0605372 0.762432
581 2 0.295344 0.067263 0.728941
910 2 0.735365 0.0523024 0.765775
529 2 0.264284 0.0866812 0.766104
960 2 0.84025 0.0667337 0.736654
994 2 0.881195 0.0832074 0.745425
856 2 0.906932 0.0813245 0.766317
591 2 0.258301 0.117387 0.764929
747 2 0.870183 0.137796 0.748814
712 2 0.432356 0.223822 0.783577
809 2 0.703005 0.24977 0.774061
652 2 0.624088 0.256116 0.779774
505 2 0.0463355 0.339945 0.758551
694 2 0.282212 0.36256 0.74564
979 2 0.498401 0.335246 0.774459
673 2 0.604923 0.355969 0.77124
535 2 0.714995 0.369911 0.759126
921 2 0.0929922 0.347242 0.739489
917 2 0.813209 0.423593 0.772669
589 2 0.966842 0.473095 0.784905
647 2 0.952525 0.503093 0.778695
902 2 0.446696 0.532013 0.764067
610 2 0.48668 0.562253 0.765214
679 2 0.471066 0.579254 0.761983
533 2 0.229326 0.557329 0.756205
525 2 0.662022 0.58368 0.776766
947 2 0.208972 0.611338 0.760126
506 2 0.590517 0.665839 0.769386
953 2 0.964673 0.687781 0.744556
605 2 0.291287 0.728623 0.759464
804 2 0.646655 0.753575 0.780599
933 2 0.235237 0.803966 0.777807
569 2 0.406624 0.784444 0.753503
920 2 0.771116 0.801803 0.764591
945 2 0.465064 0.854065 0.753626
858 2 0.332972 0.874606 0.722102
683 2 0.851854 0.914282 0.760465
540 2 0.820854 0.942775 0.777364
730 2 0.0127019 0.0931548 0.743785
939 2 0.0600517 0.119459 0.775186
503 2 0.667867 0.19665 0.767072
565 2 0.0682245 0.247577 0.761847
879 2 0.50396 0.266357 0.776384
585 2 0.0502363 0.281446 0.759394
911 2 0.724084 0.301646 0.771815
563 2 0.167241 0.31371 0.785017
566 2 0.929887 0.399407 0.779427
665 2 0.00277974 0.367719 0.786055
726 2 0.428734 0.39509 0.798673
711 2 0.535487 0.397736 0.76462
727 2 0.501904 0.413095 0.781217
963 2 0.0513995 0.410748 0.759429
952 2 0.271288 0.450514 0.781068
657 2 0.185194 0.464486 0.78575
583 2 0.687552 0.456639 0.77464
819 2 0.505756 0.479808 0.766908
721 2 0.0469533 0.527444 0.811944
507 2 0.0707927 0.583931 0.766047
742 2 0.150443 0.605483 0.765266
558 2 0.607485 0.634056 0.759998
748 2 0.876512 0.650526 0.754025
855 2 0.0834211 0.714279 0.774553
621 2 0.204521 0.714922 0.77424
661 2 0.969629 0.694539 0.780797
863 2 0.570178 0.769108 0.778663
725 2 0.846838 0.753635 0.789354
723 2 0.727827 0.745194 0.788437
718 2 0.0344189 0.862345 0.764569
615 2 0.0996382 0.890463 0.789537
660 2 0.707309 0.861328 0.768652
860 2 0.567872 0.917626 0.755762
794 2 0.795579 0.908347 0.796328
614 2 0.923741 0.970358 0.771645
811 2 0.46515 0.979847 0.77718
739 2 0.905178 0.0261887 0.775068
788 2 0.232924 0.116614 0.783038
639 2 0.703044 0.108234 0.79441
955 2 0.727599 0.094294 0.800329
896 2 0.278325 0.132033 0.807761
958 2 0.388878 0.130296 0.794791
587 2 0.465316 0.138864 0.793933
710 2 0.939654 0.134305 0.799933
732 2 0.780974 0.135367 0.770865
970 2 0.78376 0.179145 0.806295
684 2 0.511394 0.20903 0.786685
687 2 0.197648 0.220425 0.785222
803 2 0.863565 0.243129 0.78691
596 2 0.903498 0.246472 0.757614
923 2 0.0560545 0.287444 0.790517
802 2 0.425694 0.254233 0.779548
640 2 0.568173 0.218821 0.808339
641 2 0.783766 0.255225 0.788208
806 2 0.200089 0.276053 0.799418
950 2 0.957971 0.273505 0.789061
882 2 0.686504 0.307945 0.791447
553 2 0.485654 0.307886 0.798979
874 2 0.198221 0.390878 0.789974
759 2 0.2996 0.41393 0.762503
778 2 0.738872 0.43529 0.806092
746 2 0.761128 0.407921 0.796914
797 2 0.667636 0.466799 0.772203
777 2 0.374603 0.480273 0.760966
975 2 0.517559 0.494376 0.787521
713 2 0.51937 0.527148 0.800369
966 2 0.302277 0.528636 0.796298
971 2 0.735842 0.557577 0.770029
782 2 0.551955 0.601148 0.806593
530 2 0.276981 0.597619 0.771985
796 2 0.16187 0.645116 0.797708
918 2 0.64969 0.677751 0.775619
792 2 0.426674 0.700938 0.818578
831 2 0.681112 0.678288 0.79441
697 2 0.768458 0.715507 0.804105
749 2 0.0827967 0.717529 0.789206
957 2 0.394504 0.752316 0.796421
572 2 0.0227541 0.781705 0.78333
595 2 0.274554 0.785799 0.792843
578 2 0.770116 0.791983 0.78208
775 2 0.73738 0.838961 0.785404
515 2 0.663921 0.878759 0.799878
532 2 0.245102 0.875196 0.782528
943 2 0.207952 0.947243 0.798564
929 2 0.388166 0.96586 0.799337
690 2 0.104635 0.971871 0.796735
894 2 0.463546 0.958323 0.778759
686 2 0.540468 0.961937 0.770865
825 2 0.884795 0.986211 0.788376
504 2 0.685524 0.967816 0.785152
709 2 0.851591 0.986061 0.797479
685 2 0.865691 0.968829 0.775389
716 2 0.392963 0.0107741 0.764336
573 2 0.28378 0.99976 0.807087
812 2 0.533895 0.0276386 0.814034
546 2 0.622332 0.0982921 0.819361
608 2 0.231065 0.109087 0.797889
903 2 0.0375133 0.191752 0.797218
594 2 0.893729 0.176229 0.818479
867 2 0.0560855 0.249293 0.840844
762 2 0.105526 0.24487 0.827379
555 2 0.455588 0.280239 0.820339
793 2 0.256463 0.291804 0.763217
609 2 0.466791 0.331694 0.807584
868 2 0.941845 0.334006 0.813503
691 2 0.14399 0.311576 0.824608
977 2 0.991947 0.369314 0.811395
634 2 0.198222 0.422219 0.830231
729 2 0.852168 0.405196 0.79239
668 2 0.0388049 0.411209 0.80296
524 2 0.506457 0.425748 0.829506
870 2 0.571717 0.406499 0.800099
719 2 0.128407 0.427067 0.804036
622 2 0.919989 0.448565 0.822184
996 2 0.806704 0.482912 0.812054
543 2 0.399244 0.505287 0.79976
938 2 0.539587 0.501673 0.819838
693 2 0.846506 0.529618 0.799886
928 2 0.926642 0.607694 0.795849
799 2 0.903083 0.616069 0.792895
839 2 0.937425 0.627042 0.784155
909 2 0.27543 0.610094 0.815017
699 2 0.34962 0.636059 0.834925
956 2 0.0837174 0.633525 0.814229
892 2 0.732075 0.681414 0.826161
582 2 0.869049 0.674885 0.805466
528 2 0.411868 0.737967 0.811182
704 2 0.491465 0.751112 0.816535
677 2 0.961533 0.781298 0.78391
745 2 0.168905 0.812049 0.817505
706 2 0.830867 0.830158 0.823157
672 2 0.96113 0.841592 0.816779
510 2 0.594527 0.879628 0.807041
523 2 0.234651 0.896611 0.800363
895 2 0.416819 0.880225 0.813576
590 2 0.761376 0.930766 0.817881
995 2 0.156213 0.967451 0.78792
508 2 0.554335 0.917338 0.819916
821 2 0.258576 0.964509 0.82036
893 2 0.894715 0.95125 0.793771
897 2 0.158222 0.96115 0.815246
873 2 0.766872 0.986642 0.784822
705 2 0.296821 0.0296872 0.800961
795 2 0.926364 0.0363252 0.838136
770 2 0.0223481 0.0599545 0.825148
602 2 0.789814 0.11988 0.844337
624 2 0.028843 0.118656 0.836932
628 2 0.115008 0.122139 0.828228
980 2 0.237064 0.118732 0.830756
635 2 0.976529 0.141814 0.827863
733 2 0.176875 0.152419 0.804412
949 2 0.726606 0.182603 0.821569
848 2 0.00779102 0.208 0.820466
562 2 0.629338 0.228357 0.820755
579 2 0.0314448 0.247223 0.846443
520 2 0.607973 0.25181 0.840186
869 2 0.875125 0.220658 0.835924
830 2 0.853962 0.262137 0.824334
604 2 0.663263 0.282856 0.822951
842 2 0.584966 0.334895 0.860337
838 2 0.356016 0.32779 0.823944
531 2 0.841949 0.373528 0.844246
829 2 0.915402 0.370591 0.816792
810 2 0.357487 0.400364 0.826667
586 2 0.135766 0.42068 0.821295
648 2 0.257796 0.419465 0.796607
982 2 0.647881 0.418189 0.82229
835 2 0.20081 0.456438 0.836437
808 2 0.411586 0.466822 0.802708
667 2 0.762303 0.458236 0.852552
692 2 0.153198 0.491393 0.828074
930 2 0.866357 0.513118 0.824257
654 2 0.962327 0.559638 0.824583
645 2 0.495684 0.571601 0.808878
991 2 0.946272 0.568961 0.830322
568 2 0.849455 0.585372 0.824136
696 2 0.661118 0.649836 0.827185
650 2 0.312493 0.723513 0.818704
798 2 0.767305 0.737593 0.810395
967 2 0.220439 0.759045 0.847055
1000 2 0.727517 0.797585 0.831456
968 2 0.907405 0.775768 0.841436
780 2 0.190503 0.805665 0.802319
756 2 0.6801 0.813108 0.82763
898 2 0.801959 0.837564 0.797858
700 2 0.530322 0.843031 0.820148
771 2 0.50246 0.865524 0.84657
676 2 0.0557232 0.891452 0.844891
951 2 0.990378 0.913914 0.818882
807 2 0.466998 0.922489 0.824767
988 2 0.62249 0.954661 0.840556
642 2 0.224449 0.961749 0.818164
888 2 0.393249 0.980698 0.830383
662 2 0.578382 0.960192 0.836216
847 2 0.2218 0.994006 0.82422
765 2 0.524624 0.00287814 0.800359
539 2 0.303664 0.027208 0.848989
519 2 0.651515 0.988604 0.828301
554 2 0.918246 0.00348652 0.834453
823 2 0.963979 0.00505448 0.835205
669 2 0.549816 0.00712233 0.850834
574 2 0.800805 0.0828362 0.846769
851 2 0.107869 0.0776946 0.831853
735 2 0.940635 0.101872 0.87651
824 2 0.667586 0.125848 0.830074
841 2 0.405148 0.124819 0.840145
908 2 0.781496 0.135837 0.859645
544 2 0.295785 0.151826 0.851223
907 2 0.373476 0.168358 0.845028
618 2 0.532267 0.175898 0.840184
764 2 0.666379 0.146539 0.845375
708 2 0.316968 0.1973 0.842094
984 2 0.672792 0.243922 0.834146
561 2 0.763814 0.244462 0.838129
502 2 0.214016 0.242794 0.849665
864 2 0.50637 0.308001 0.816397
636 2 0.653966 0.360641 0.843496
862 2 0.676137 0.372942 0.841388
630 2 0.318768 0.384976 0.854799
843 2 0.42554 0.401346 0.830489
993 2 0.178334 0.410463 0.836981
767 2 0.572298 0.395995 0.828692
787 2 0.319255 0.430186 0.833491
865 2 0.762647 0.407658 0.840946
853 2 0.58268 0.45676 0.843282
850 2 0.601962 0.487507 0.842272
707 2 0.96537 0.460245 0.833046
753 2 0.124248 0.492797 0.856521
509 2 0.508752 0.503545 0.851254
612 2 0.840394 0.555782 0.816312
983 2 0.913277 0.54491 0.8371
769 2 0.205777 0.539314 0.845469
512 2 0.269637 0.57062 0.806297
755 2 0.416751 0.616792 0.849173
877 2 0.83804 0.676596 0.829723
666 2 0.858497 0.725817 0.835966
880 2 0.391859 0.740836 0.854963
511 2 0.247444 0.731006 0.832654
681 2 0.843344 0.711554 0.851979
937 2 0.634408 0.751021 0.807844
844 2 0.933441 0.748665 0.844738
728 2 0.489313 0.795326 0.836081
547 2 0.505892 0.79015 0.833833
714 2 0.908705 0.81583 0.848422
545 2 0.474154 0.821745 0.858527
973 2 0.468434 0.86063 0.840664
571 2 0.676411 0.850847 0.820847
501 2 0.621831 0.869748 0.860891
905 2 0.663893 0.861216 0.823484
840 2 0.869679 0.869178 0.842925
717 2 0.125059 0.904955 0.849106
527 2 0.334749 0.90009 0.838582
541 2 0.0562783 0.91227 0.839389
616 2 0.510697 0.919125 0.850816
575 2 0.686634 0.938584 0.838196
871 2 0.0136854 0.950712 0.844603
606 2 0.681185 0.0137257 0.858763
678 2 0.515306 0.00990597 0.86664
613 2 0.863743 0.000876804 0.850803
598 2 0.445288 0.00812067 0.858799
603 2 0.582764 0.0303842 0.870535
537 2 0.656821 0.0278803 0.858871
526 2 0.90584 0.0176809 0.873523
593 2 0.0851505 0.041258 0.848945
954 2 0.609371 0.0699509 0.819001
942 2 0.0770278 0.0955538 0.862699
913 2 0.351005 0.11638 0.841973
564 2 0.763091 0.0824759 0.855
965 2 0.751837 0.120147 0.858647
886 2 0.0746902 0.138365 0.865851
560 2 0.140241 0.18538 0.861867
822 2 0.18995 0.311903 0.862779
901 2 0.283368 0.303427 0.856902
772 2 0.564109 0.273129 0.853976
887 2 0.300893 0.31342 0.863677
734 2 0.889823 0.334088 0.840017
854 2 0.969306 0.323785 0.851108
813 2 0.168125 0.413582 0.892085
619 2 0.225533 0.45056 0.858095
881 2 0.0684209 0.454668 0.856364
776 2 0.751916 0.481038 0.855059
513 2 0.334653 0.55403 0.86659
737 2 0.201562 0.566532 0.864474
932 2 0.906744 0.62381 0.857154
548 2 0.310703 0.680238 0.851602
552 2 0.49553 0.694791 0.856137
790 2 0.311984 0.752175 0.847565
931 2 0.667616 0.739873 0.852233
627 2 0.77441 0.76557 0.86376
915 2 0.0475244 0.83208 0.87254
626 2 0.171164 0.863095 0.852778
912 2 0.376478 0.955564 0.845101
551 2 0.589935 0.964364 0.867566
922 2 0.0297222 0.968126 0.870822
861 2 0.163096 0.0197985 0.866174
600 2 0.485555 0.0650034 0.877473
999 2 0.538973 0.0725194 0.896408
846 2 0.259301 0.0939945 0.896576
534 2 0.794969 0.137506 0.842489
981 2 0.246675 0.146642 0.866106
766 2 0.944137 0.187956 0.884218
914 2 0.854676 0.170136 0.869523
611 2 0.0454586 0.197993 0.884424
924 2 0.220155 0.245744 0.876638
550 2 0.415116 0.261188 0.897011
781 2 0.653498 0.26085 0.873913
779 2 0.781 0.284685 0.869683
758 2 0.111293 0.285872 0.862983
632 2 0.520229 0.296901 0.858234
783 2 0.626123 0.365978 0.85745
989 2 0.142464 0.373753 0.884412
701 2 0.293586 0.422812 0.879838
890 2 0.24806 0.498425 0.872264
663 2 0.313243 0.457115 0.877178
702 2 0.741292 0.493559 0.869561
985 2 0.16893 0.534759 0.900281
703 2 0.200633 0.559254 0.882387
834 2 0.356303 0.554532 0.895237
653 2 0.76973 0.540715 0.859367
760 2 0.929378 0.550405 0.835191
935 2 0.458859 0.553896 0.854847
674 2 0.649391 0.56409 0.873326
859 2 0.436322 0.575248 0.866201
761 2 0.988955 0.65638 0.893685
599 2 0.207816 0.679403 0.856778
986 2 0.997917 0.68676 0.871876
827 2 0.321858 0.720603 0.871479
828 2 0.860246 0.710956 0.887542
629 2 0.968919 0.707012 0.874686
944 2 0.280734 0.698969 0.866084
549 2 0.489597 0.721364 0.888145
738 2 0.890317 0.706908 0.869451
849 2 0.197443 0.728068 0.86577
517 2 0.880122 0.733113 0.887774
875 2 0.0754959 0.769772 0.873029
818 2 0.906571 0.752994 0.874263
731 2 0.255514 0.778408 0.879572
633 2 0.0156661 0.77483 0.858262
643 2 0.553535 0.823919 0.855647
675 2 0.327669 0.814837 0.88084
826 2 0.610623 0.862799 0.888782
559 2 0.592768 0.864938 0.903214
964 2 0.712997 0.899511 0.900016
623 2 0.831852 0.87306 0.886178
946 2 0.196561 0.899984 0.894279
601 2 0.320609 0.88566 0.911685
785 2 0.49015 0.916314 0.853753
934 2 0.0688302 0.9206 0.909695